 Gaussian 16, Revision B.01,
 Gaussian 16:  ES64L-G16RevB.01 20-Dec-2017

 ---------------------------------------------------
 #p opt=(calcall,ts,noeigentest) freq upm6 guess=mix
 ---------------------------------------------------

 ----
 name
 ----
 Symbolic Z-matrix:
 Charge =  0 Multiplicity = 2

 SCF Done:  E(UPM6) =  0.340699528133E-01 A.U. after   25 cycles
 SCF Done:  E(UPM6) =  0.335755043243E-01 A.U. after   18 cycles
 SCF Done:  E(UPM6) =  0.335308921275E-01 A.U. after   20 cycles
 SCF Done:  E(UPM6) =  0.335307296344E-01 A.U. after   13 cycles
 Optimization completed.
    -- Stationary point found.
 ******    1 imaginary frequencies (negative Signs) ******
    1 imaginary frequencies ignored.
 Normal termination of Gaussian 16 at Thu Apr  2 20:34:32 2020.

 -------------------------------------------------------------
 #P Geom=AllCheck Guess=TCheck SCRF=Check GenChk UPM6/ZDO Freq
 -------------------------------------------------------------

 Structure from the checkpoint file:  "ts1016.chk"
 ----
 name
 ----
 Charge =  0 Multiplicity = 2

                         Standard orientation:
 ---------------------------------------------------------------------
 Center     Atomic      Atomic             Coordinates (Angstroms)
 Number     Number       Type             X           Y           Z
 ---------------------------------------------------------------------
      1          7           0       -3.426236   -0.222414    0.220865
      2          6           0       -1.966681   -0.009314    0.447610
      3          6           0       -1.221167   -0.297992   -0.865330
      4          1           0       -1.803593    1.055325    0.735090
      5          1           0       -1.550507   -0.636238    1.265793
      6          6           0        0.277547   -0.000843   -0.793964
      7          1           0       -1.365630   -1.355762   -1.163290
      8          1           0       -1.673794    0.314574   -1.677031
      9          7           0        0.988018   -0.817810    0.241598
     10          1           0        0.767930   -0.106707   -1.788078
     11          6           0        1.369095   -0.068047    1.402320
     12          6           0        2.104517   -1.620186   -0.334171
     13          1           0        0.519974    0.318713    1.972548
     14          1           0        2.157500   -0.490940    2.018304
     15          1           0        1.841203    1.121732    0.982096
     16          1           0        2.508139   -2.295680    0.438386
     17          1           0        2.935587   -1.011774   -0.727566
     18          1           0        1.718826   -2.256682   -1.147225
     19          8           0        0.327366    1.427339   -0.411252
     20          8           0        1.576234    1.784211   -0.141490
     21          1           0       -3.961621    0.121913    1.011463
     22          1           0       -3.635161   -1.211015    0.125424
 ---------------------------------------------------------------------

 SCF Done:  E(UPM6) =  0.335307296347E-01 A.U. after    2 cycles

 The electronic state is 2-A.
 Alpha  occ. eigenvalues --   -1.17790  -1.13835  -1.09822  -1.04640  -0.97685
 Alpha  occ. eigenvalues --   -0.92981  -0.87500  -0.80557  -0.75354  -0.67321
 Alpha  occ. eigenvalues --   -0.65217  -0.62601  -0.61378  -0.60536  -0.56951
 Alpha  occ. eigenvalues --   -0.55542  -0.53781  -0.52831  -0.52123  -0.48985
 Alpha  occ. eigenvalues --   -0.47313  -0.46239  -0.44506  -0.43375  -0.40311
 Alpha  occ. eigenvalues --   -0.35966  -0.34792  -0.31845
 Alpha virt. eigenvalues --    0.02996   0.06798   0.10425   0.11858   0.14100
 Alpha virt. eigenvalues --    0.14170   0.15052   0.16012   0.17317   0.18732
 Alpha virt. eigenvalues --    0.18959   0.19025   0.19404   0.20467   0.20773

  Beta  occ. eigenvalues --   -1.16823  -1.13775  -1.07873  -1.01384  -0.94882
  Beta  occ. eigenvalues --   -0.91992  -0.87181  -0.80037  -0.74859  -0.65818
  Beta  occ. eigenvalues --   -0.64163  -0.62173  -0.60246  -0.59429  -0.56030
  Beta  occ. eigenvalues --   -0.54359  -0.53479  -0.52126  -0.51483  -0.48600
  Beta  occ. eigenvalues --   -0.46793  -0.46000  -0.44335  -0.39905  -0.35967
  Beta  occ. eigenvalues --   -0.34767  -0.32554
  Beta virt. eigenvalues --   -0.02786   0.04639   0.07446   0.10864   0.12266
  Beta virt. eigenvalues --    0.14147   0.14526   0.15201   0.16707   0.18223
  Beta virt. eigenvalues --    0.18830   0.19080   0.19190   0.19722   0.20792

 Mulliken charges and spin densities:
               1          2
     1  N   -0.528366   0.000043
     2  C   -0.118723  -0.000539
     3  C   -0.319907   0.003339
     4  H    0.148515   0.000080
     5  H    0.115480   0.000019
     6  C    0.158792  -0.024115
     7  H    0.157172  -0.000826
     8  H    0.174703  -0.000475
     9  N   -0.227052   0.177012
    10  H    0.132635   0.009807
    11  C   -0.339723   0.398269
    12  C   -0.345658  -0.012577
    13  H    0.167560  -0.008322
    14  H    0.156282  -0.009062
    15  H    0.253835  -0.105787
    16  H    0.160294   0.001445
    17  H    0.149018   0.005379
    18  H    0.156298   0.000567
    19  O   -0.129963   0.096356
    20  O   -0.332217   0.469387
    21  H    0.207625   0.000011
    22  H    0.203400  -0.000013
 Sum of Mulliken charges =   0.00000   1.00000

 Dipole moment (field-independent basis, Debye):
    X=              0.9539    Y=             -3.8005    Z=              1.4658  Tot=              4.1836
 N-N= 3.194412680955D+02 E-N=-4.998541504296D+02  KE=-1.027731846487D+02
  Exact polarizability:  66.954   2.327  85.864   7.552  -6.160  56.000
 Approx polarizability:  44.592   3.195  55.721   6.203  -1.990  39.552
 Leave Link  601 at Thu Apr  2 20:34:33 2020, MaxMem=   131072000 cpu:               0.2 elap:               0.1
 (Enter /home/dranasinghe/Software/G16_avx2/g16/l701.exe)
 ... and contract with generalized density number  0.
 Compute integral second derivatives.
 Leave Link  701 at Thu Apr  2 20:34:33 2020, MaxMem=   131072000 cpu:               0.2 elap:               0.1
 (Enter /home/dranasinghe/Software/G16_avx2/g16/l702.exe)
 L702 exits ... SP integral derivatives will be done elsewhere.

 ******    1 imaginary frequencies (negative Signs) ******

                      1                      2                      3
                      A                      A                      A
 Frequencies --  -2265.5332                40.8637                61.8513
 Red. masses --      1.1923                 2.4752                 2.3986
 Frc consts  --      3.6055                 0.0024                 0.0054
 IR Inten    --   2723.1249                 4.0576                 3.2780

                      4                      5                      6
                      A                      A                      A
 Frequencies --     75.9105               139.8922               148.6801
 Red. masses --      3.3710                 1.8696                 1.1179
 Frc consts  --      0.0114                 0.0216                 0.0146
 IR Inten    --      3.0209                 2.8897                70.9205

                      7                      8                      9
                      A                      A                      A
 Frequencies --    150.3361               254.1746               257.2816
 Red. masses --      1.4275                 2.7170                 3.5924
 Frc consts  --      0.0190                 0.1034                 0.1401
 IR Inten    --      4.2002                 0.1004                13.0878

                     10                     11                     12
                      A                      A                      A
 Frequencies --    309.8819               342.2937               418.4843
 Red. masses --      2.4521                 4.1650                 2.3238
 Frc consts  --      0.1387                 0.2875                 0.2398
 IR Inten    --      8.4419                 4.5442                 2.0969

                     13                     14                     15
                      A                      A                      A
 Frequencies --    446.6991               488.6936               564.6238
 Red. masses --      4.4670                 3.7966                 1.7034
 Frc consts  --      0.5252                 0.5342                 0.3200
 IR Inten    --      5.7384                 6.0005                31.5589

                     16                     17                     18
                      A                      A                      A
 Frequencies --    615.4139               646.3967               772.0247
 Red. masses --      5.1059                 4.5404                 1.3122
 Frc consts  --      1.1393                 1.1177                 0.4608
 IR Inten    --     19.6113                17.4296                11.9557

                     19                     20                     21
                      A                      A                      A
 Frequencies --    889.7471               936.1126               964.2849
 Red. masses --      2.3432                 1.9208                 1.1545
 Frc consts  --      1.0929                 0.9917                 0.6325
 IR Inten    --     58.3064                14.5901                60.9934

                     22                     23                     24
                      A                      A                      A
 Frequencies --    984.6312               990.3167              1015.2115
 Red. masses --      1.6598                 2.6249                 1.6056
 Frc consts  --      0.9481                 1.5168                 0.9750
 IR Inten    --     49.0632                27.9137                15.0086

                     25                     26                     27
                      A                      A                      A
 Frequencies --   1042.1489              1054.5551              1070.1151
 Red. masses --      1.8385                 1.4635                 1.5267
 Frc consts  --      1.1765                 0.9589                 1.0301
 IR Inten    --     19.8293                27.4972                23.3759

                     28                     29                     30
                      A                      A                      A
 Frequencies --   1098.9648              1127.3502              1163.0129
 Red. masses --      1.9815                 1.3340                 1.4204
 Frc consts  --      1.4100                 0.9989                 1.1320
 IR Inten    --     90.8946                16.5064                 6.6676

                     31                     32                     33
                      A                      A                      A
 Frequencies --   1181.2888              1185.0465              1208.7890
 Red. masses --      1.4253                 1.3004                 1.7218
 Frc consts  --      1.1718                 1.0760                 1.4823
 IR Inten    --      3.9517                 5.3530                 5.6033

                     34                     35                     36
                      A                      A                      A
 Frequencies --   1214.3532              1232.7376              1246.8236
 Red. masses --      2.1241                 1.9097                 1.0838
 Frc consts  --      1.8455                 1.7099                 0.9926
 IR Inten    --      3.7781                37.2433                29.9337

                     37                     38                     39
                      A                      A                      A
 Frequencies --   1248.8637              1258.2976              1267.0272
 Red. masses --      1.0512                 1.1874                 1.2056
 Frc consts  --      0.9659                 1.1077                 1.1404
 IR Inten    --     31.7856                15.0480                23.3463

                     40                     41                     42
                      A                      A                      A
 Frequencies --   1286.4792              1299.8995              1316.1353
 Red. masses --      1.2682                 2.3709                 1.1778
 Frc consts  --      1.2367                 2.3604                 1.2020
 IR Inten    --      1.4517                14.1659                 7.4089

                     43                     44                     45
                      A                      A                      A
 Frequencies --   1323.1480              1348.7911              1352.8034
 Red. masses --      1.5107                 1.2348                 1.4443
 Frc consts  --      1.5583                 1.3236                 1.5573
 IR Inten    --     39.9157                17.1451                 1.0015

                     46                     47                     48
                      A                      A                      A
 Frequencies --   1407.6604              1613.9814              1696.9621
 Red. masses --      3.3384                 1.0939                 1.0557
 Frc consts  --      3.8975                 1.6789                 1.7912
 IR Inten    --     24.1830                16.1383                69.8226

                     49                     50                     51
                      A                      A                      A
 Frequencies --   2641.5629              2664.6430              2666.6156
 Red. masses --      1.0793                 1.0672                 1.0846
 Frc consts  --      4.4374                 4.4644                 4.5439
 IR Inten    --      3.2689                23.0676                38.9831

                     52                     53                     54
                      A                      A                      A
 Frequencies --   2671.3004              2675.9868              2697.7138
 Red. masses --      1.0879                 1.0859                 1.0955
 Frc consts  --      4.5741                 4.5814                 4.6975
 IR Inten    --     90.4539                55.6178                66.2158

                     55                     56                     57
                      A                      A                      A
 Frequencies --   2712.9750              2738.9447              2743.2052
 Red. masses --      1.0432                 1.0509                 1.0447
 Frc consts  --      4.5236                 4.6449                 4.6320
 IR Inten    --      4.9483                83.9670                83.6505

                     58                     59                     60
                      A                      A                      A
 Frequencies --   2766.3823              2807.6463              2844.1728
 Red. masses --      1.0290                 1.0873                 1.0408
 Frc consts  --      4.6399                 5.0498                 4.9603
 IR Inten    --     42.4919                62.5215                54.8243

 - Thermochemistry -
 -------------------
 Temperature   298.150 Kelvin.  Pressure   1.00000 Atm.
 Atom     1 has atomic number  7 and mass  14.00307

 Molecular mass:   133.09770 amu.
 Principal axes and moments of inertia in atomic units:
                           1         2         3
     Eigenvalues --   763.664351774.436552039.31901
           X            0.99969  -0.02475  -0.00268
           Y            0.02486   0.99814   0.05558
           Z            0.00130  -0.05563   0.99845
 This molecule is an asymmetric top.
 Rotational symmetry number  1.
 Warning -- assumption of classical behavior for rotation
           may cause significant error
 Rotational temperatures (Kelvin)      0.11342     0.04881     0.04247
 Rotational constants (GHZ):           2.36326     1.01708     0.88497
    1 imaginary frequencies ignored.
 Zero-point vibrational energy     444952.1 (Joules/Mol)
                                  106.34611 (Kcal/Mol)
 Warning -- explicit consideration of  15 degrees of freedom as
           vibrations may cause significant error
 Vibrational temperatures:     58.79    88.99   109.22   201.27   213.92
          (Kelvin)            216.30   365.70   370.17   445.85   492.48
                              602.11   642.70   703.12   812.37   885.44
                              930.02  1110.77  1280.15  1346.86  1387.39
                             1416.66  1424.84  1460.66  1499.42  1517.27
                             1539.66  1581.17  1622.01  1673.32  1699.61
                             1705.02  1739.18  1747.18  1773.63  1793.90
                             1796.84  1810.41  1822.97  1850.96  1870.27
                             1893.63  1903.71  1940.61  1946.38  2025.31
                             2322.16  2441.55  3800.62  3833.83  3836.67
                             3843.41  3850.15  3881.41  3903.37  3940.73
                             3946.86  3980.21  4039.58  4092.13

 Zero-point correction=                           0.169473 (Hartree/Particle)
 Thermal correction to Energy=                    0.180407
 Thermal correction to Enthalpy=                  0.181351
 Thermal correction to Gibbs Free Energy=         0.131667
 Sum of electronic and zero-point Energies=              0.203004
 Sum of electronic and thermal Energies=                 0.213938
 Sum of electronic and thermal Enthalpies=               0.214882
 Sum of electronic and thermal Free Energies=            0.165197

                     E (Thermal)             CV                S
                      KCal/Mol        Cal/Mol-Kelvin    Cal/Mol-Kelvin
 Total                  113.207             39.149            104.570
 Electronic               0.000              0.000              1.377
 Translational            0.889              2.981             40.570
 Rotational               0.889              2.981             29.404
 Vibrational            111.430             33.188             33.219
 Vibration     1          0.594              1.981              5.217
 Vibration     2          0.597              1.973              4.397
 Vibration     3          0.599              1.965              3.994
 Vibration     4          0.615              1.913              2.805
 Vibration     5          0.618              1.904              2.689
 Vibration     6          0.618              1.902              2.668
 Vibration     7          0.665              1.756              1.701
 Vibration     8          0.667              1.750              1.680
 Vibration     9          0.699              1.655              1.363
 Vibration    10          0.721              1.591              1.201
 Vibration    11          0.781              1.430              0.897
 Vibration    12          0.806              1.368              0.806
 Vibration    13          0.845              1.275              0.687
 Vibration    14          0.920              1.108              0.515
 Vibration    15          0.975              0.999              0.424

 Optimization completed.
    -- Stationary point found.
 Normal termination of Gaussian 16 at Thu Apr  2 20:34:33 2020.
